 Gaussian 09, Revision D.01,
 Gaussian 09:  ES64L-G09RevD.01 24-Apr-2013

 ----------------------------------------------------------------------
 #p RHF/STO-3G NOSYMM opt freq pop=full scf=(xqc,direct,MaxConventional
 Cycles=200,MaxCycle=300)
 ----------------------------------------------------------------------

 -------
 test hf
 -------
 Symbolic Z-matrix:
 Charge =  0 Multiplicity = 1

 SCF Done:  E(RHF) =  -980.924970070     A.U. after    8 cycles
 SCF Done:  E(RHF) =  -980.937682346     A.U. after    8 cycles
 SCF Done:  E(RHF) =  -980.937903232     A.U. after    6 cycles
 Optimization completed.
    -- Stationary point found.
 Normal termination of Gaussian 09 at Mon Jun 22 12:15:40 2020.

 ---------------------------------------------------------------
 #P Geom=AllCheck Guess=TCheck SCRF=Check GenChk RHF/STO-3G Freq
 ---------------------------------------------------------------

 Structure from the checkpoint file:  "sf6_freq.chk"
 -------
 test hf
 -------
 Charge =  0 Multiplicity = 1

                          Input orientation:
 ---------------------------------------------------------------------
 Center     Atomic      Atomic             Coordinates (Angstroms)
 Number     Number       Type             X           Y           Z
 ---------------------------------------------------------------------
      1         16           0        0.000000    0.000000    0.000000
      2          9           0        1.652259    0.000000    0.000000
      3          9           0       -1.652259    0.000000    0.000000
      4          9           0        0.000000    1.652259    0.000000
      5          9           0        0.000000   -1.652259    0.000000
      6          9           0        0.000000    0.000000    1.652259
      7          9           0        0.000000    0.000000   -1.652259
 ---------------------------------------------------------------------

 SCF Done:  E(RHF) =  -980.937903232     A.U. after    1 cycles

 Alpha  occ. eigenvalues --  -91.40809 -25.92127 -25.92121 -25.92121 -25.92121
 Alpha  occ. eigenvalues --  -25.92086 -25.92086  -9.22848  -6.86361  -6.86361
 Alpha  occ. eigenvalues --   -6.86361  -1.64958  -1.53159  -1.53159  -1.53159
 Alpha  occ. eigenvalues --   -1.47808  -1.47808  -0.96508  -0.73004  -0.73004
 Alpha  occ. eigenvalues --   -0.73004  -0.54655  -0.54655  -0.54655  -0.51150
 Alpha  occ. eigenvalues --   -0.51150  -0.51150  -0.48794  -0.48794  -0.48794
 Alpha  occ. eigenvalues --   -0.48151  -0.48151  -0.48151  -0.38594  -0.38594
 Alpha virt. eigenvalues --    0.26011   0.38925   0.38925   0.38925

 Mulliken charges:
               1
     1  S    1.500179
     2  F   -0.250030
     3  F   -0.250030
     4  F   -0.250030
     5  F   -0.250030
     6  F   -0.250030
     7  F   -0.250030
 Sum of Mulliken charges =   0.00000

 Dipole moment (field-independent basis, Debye):
    X=              0.0000    Y=              0.0000    Z=              0.0000  Tot=              0.0000
 Quadrupole moment (field-independent basis, Debye-Ang):
   XX=            -39.2335   YY=            -39.2335   ZZ=            -39.2335
   XY=              0.0000   XZ=              0.0000   YZ=              0.0000

  Exact polarizability:  17.131   0.000  17.131   0.000   0.000  17.131
 Approx polarizability:  18.107   0.000  18.107   0.000   0.000  18.107

                      1                      2                      3
                      A                      A                      A
 Frequencies --    279.8838               279.8838               279.8838
 Red. masses --     18.9984                18.9984                18.9984
 Frc consts  --      0.8768                 0.8768                 0.8768
 IR Inten    --      0.0000                 0.0000                 0.0000
 Raman Activ --      0.0000                 0.0000                 0.0000

                      4                      5                      6
                      A                      A                      A
 Frequencies --    401.3016               401.3016               401.3016
 Red. masses --     18.9984                18.9984                18.9984
 Frc consts  --      1.8026                 1.8026                 1.8026
 IR Inten    --      0.0000                 0.0000                 0.0000
 Raman Activ --      3.7424                 3.7424                 3.7424

                      7                      8                      9
                      A                      A                      A
 Frequencies --    484.3138               484.3138               484.3138
 Red. masses --     20.2925                20.2925                20.2925
 Frc consts  --      2.8044                 2.8044                 2.8044
 IR Inten    --     61.7387                61.7387                61.7387
 Raman Activ --      0.0000                 0.0000                 0.0000

                     10                     11                     12
                      A                      A                      A
 Frequencies --    749.5143               759.7656               759.7656
 Red. masses --     18.9984                18.9984                18.9984
 Frc consts  --      6.2882                 6.4614                 6.4614
 IR Inten    --      0.0000                 0.0000                 0.0000
 Raman Activ --     25.2173                11.5612                11.5612

                     13                     14                     15
                      A                      A                      A
 Frequencies --   1158.9952              1158.9952              1158.9952
 Red. masses --     25.4372                25.4372                25.4372
 Frc consts  --     20.1318                20.1318                20.1318
 IR Inten    --    213.2973               213.2973               213.2973
 Raman Activ --      0.0000                 0.0000                 0.0000

 - Thermochemistry -
 -------------------
 Temperature   298.150 Kelvin.  Pressure   1.00000 Atm.
 Atom     1 has atomic number 16 and mass  31.97207

 Molecular mass:   145.96249 amu.
 Principal axes and moments of inertia in atomic units:
                           1         2         3
     Eigenvalues --   740.85147 740.85147 740.85147
           X            0.49117   0.79617  -0.35337
           Y            0.59080  -0.60259  -0.53651
           Z            0.64009  -0.05475   0.76635
 This molecule is a spherical top.
 Rotational symmetry number 24.
 Warning -- assumption of classical behavior for rotation
           may cause significant error
 Rotational temperatures (Kelvin)      0.11691     0.11691     0.11691
 Rotational constants (GHZ):           2.43604     2.43604     2.43604
 Zero-point vibrational energy      55282.6 (Joules/Mol)
                                   13.21286 (Kcal/Mol)
 Warning -- explicit consideration of   9 degrees of freedom as
           vibrations may cause significant error
 Vibrational temperatures:    402.69   402.69   402.69   577.38   577.38
          (Kelvin)            577.38   696.82   696.82   696.82  1078.38
                             1093.13  1093.13  1667.53  1667.53  1667.53

 Zero-point correction=                           0.021056 (Hartree/Particle)
 Thermal correction to Energy=                    0.027194
 Thermal correction to Enthalpy=                  0.028138
 Thermal correction to Gibbs Free Energy=        -0.006303
 Sum of electronic and zero-point Energies=           -980.916847
 Sum of electronic and thermal Energies=              -980.910710
 Sum of electronic and thermal Enthalpies=            -980.909765
 Sum of electronic and thermal Free Energies=         -980.944206

                     E (Thermal)             CV                S
                      KCal/Mol        Cal/Mol-Kelvin    Cal/Mol-Kelvin
 Total                   17.064             22.226             72.487
 Electronic               0.000              0.000              0.000
 Translational            0.889              2.981             40.845
 Rotational               0.889              2.981             21.184
 Vibrational             15.287             16.265             10.457
 Vibration     1          0.680              1.711              1.534
 Vibration     2          0.680              1.711              1.534
 Vibration     3          0.680              1.711              1.534
 Vibration     4          0.767              1.467              0.958
 Vibration     5          0.767              1.467              0.958
 Vibration     6          0.767              1.467              0.958
 Vibration     7          0.840              1.285              0.699
 Vibration     8          0.840              1.285              0.699
 Vibration     9          0.840              1.285              0.699

 Optimization completed.
    -- Stationary point found.
 Normal termination of Gaussian 09 at Mon Jun 22 12:15:45 2020.
